# Force coefficients
# liftDir    : (0.000000e+00 1.000000e+00 0.000000e+00)
# dragDir    : (1.000000e+00 0.000000e+00 0.000000e+00)
# pitchAxis  : (0.000000e+00 0.000000e+00 1.000000e+00)
# magUInf    : 1.000000e+00
# lRef       : 1.000000e+00
# Aref       : 1.000000e+00
# CofR       : (0.000000e+00 0.000000e+00 0.000000e+00)
# Time       	Cm           	Cd           	Cl           	Cl(f)        	Cl(r)        	Cm	Cd	Cl	Cl(f)	Cl(r)
2.000000e-03	2.775665e+01	3.511985e+02	3.031645e+02	1.793389e+02	1.238256e+02
4.000000e-03	-1.732655e-01	3.406270e+00	1.452891e+00	5.531802e-01	8.997112e-01
6.000000e-03	-3.547398e-01	2.407280e+00	1.070164e+00	1.803423e-01	8.898218e-01
8.000000e-03	-3.428486e-01	2.161839e+00	1.013337e+00	1.638197e-01	8.495170e-01
1.000000e-02	-3.319662e-01	2.012603e+00	9.829252e-01	1.594965e-01	8.234288e-01
1.200000e-02	-3.291763e-01	1.875450e+00	9.549884e-01	1.483179e-01	8.066705e-01
1.400000e-02	-3.251913e-01	1.767189e+00	9.399970e-01	1.448072e-01	7.951898e-01
1.600000e-02	-3.186469e-01	1.690922e+00	9.369917e-01	1.498489e-01	7.871428e-01
1.800000e-02	-3.062728e-01	1.652079e+00	9.484237e-01	1.679390e-01	7.804846e-01
2.000000e-02	-2.931352e-01	1.628954e+00	9.653689e-01	1.895493e-01	7.758196e-01
2.200000e-02	-2.777937e-01	1.623010e+00	9.899995e-01	2.172061e-01	7.727935e-01
2.400000e-02	-2.635506e-01	1.620006e+00	1.015596e+00	2.442474e-01	7.713486e-01
2.600000e-02	-2.532865e-01	1.607463e+00	1.035065e+00	2.642459e-01	7.708189e-01
2.800000e-02	-2.445799e-01	1.594707e+00	1.052407e+00	2.816235e-01	7.707833e-01
3.000000e-02	-2.340526e-01	1.593647e+00	1.074686e+00	3.032904e-01	7.713957e-01
3.200000e-02	-2.253567e-01	1.589261e+00	1.094815e+00	3.220510e-01	7.727645e-01
3.400000e-02	-2.170666e-01	1.586471e+00	1.115258e+00	3.405623e-01	7.746956e-01
3.600000e-02	-2.086183e-01	1.586674e+00	1.137781e+00	3.602722e-01	7.775088e-01
3.800000e-02	-2.024837e-01	1.581474e+00	1.155919e+00	3.754759e-01	7.804434e-01
4.000000e-02	-1.982377e-01	1.571196e+00	1.170712e+00	3.871183e-01	7.835937e-01
4.200000e-02	-1.934530e-01	1.565474e+00	1.187091e+00	4.000927e-01	7.869987e-01
4.400000e-02	-1.889811e-01	1.560462e+00	1.203380e+00	4.127089e-01	7.906711e-01
4.600000e-02	-1.855201e-01	1.552922e+00	1.218824e+00	4.238920e-01	7.949322e-01
4.800000e-02	-1.823903e-01	1.545726e+00	1.233296e+00	4.342575e-01	7.990382e-01
5.000000e-02	-1.795363e-01	1.538942e+00	1.247917e+00	4.444224e-01	8.034949e-01
5.200000e-02	-1.762823e-01	1.534995e+00	1.263738e+00	4.555865e-01	8.081510e-01
5.400000e-02	-1.741800e-01	1.527243e+00	1.276845e+00	4.642424e-01	8.126024e-01
5.600000e-02	-1.728489e-01	1.517474e+00	1.288167e+00	4.712345e-01	8.169322e-01
5.800000e-02	-1.693892e-01	1.517265e+00	1.304756e+00	4.829887e-01	8.217671e-01
6.000000e-02	-1.671548e-01	1.512751e+00	1.318178e+00	4.919341e-01	8.262438e-01
6.200000e-02	-1.653022e-01	1.507347e+00	1.331098e+00	5.002468e-01	8.308512e-01
6.400000e-02	-1.635562e-01	1.502167e+00	1.343422e+00	5.081547e-01	8.352670e-01
6.600000e-02	-1.603771e-01	1.503547e+00	1.359563e+00	5.194046e-01	8.401587e-01
6.800000e-02	-1.582047e-01	1.501302e+00	1.373118e+00	5.283545e-01	8.447640e-01
7.000000e-02	-1.562718e-01	1.498443e+00	1.385776e+00	5.366164e-01	8.491599e-01
7.200000e-02	-1.542661e-01	1.496562e+00	1.398591e+00	5.450295e-01	8.535617e-01
7.400000e-02	-1.516150e-01	1.497671e+00	1.413333e+00	5.550513e-01	8.582813e-01
7.600000e-02	-1.493410e-01	1.497580e+00	1.426550e+00	5.639343e-01	8.626162e-01
7.800000e-02	-1.475373e-01	1.495899e+00	1.438440e+00	5.716827e-01	8.667572e-01
8.000000e-02	-1.453427e-01	1.496331e+00	1.451666e+00	5.804904e-01	8.711758e-01
8.200000e-02	-1.428756e-01	1.498347e+00	1.465311e+00	5.897801e-01	8.755312e-01
8.400000e-02	-1.409484e-01	1.498341e+00	1.477536e+00	5.978196e-01	8.797164e-01
8.600000e-02	-1.394460e-01	1.496813e+00	1.488595e+00	6.048513e-01	8.837433e-01
8.800000e-02	-1.370239e-01	1.499701e+00	1.502166e+00	6.140592e-01	8.881070e-01
9.000000e-02	-1.349663e-01	1.501258e+00	1.514526e+00	6.222966e-01	8.922291e-01
9.200000e-02	-1.333850e-01	1.501049e+00	1.525741e+00	6.294853e-01	8.962554e-01
9.400000e-02	-1.316582e-01	1.501746e+00	1.537333e+00	6.370084e-01	9.003248e-01
9.600000e-02	-1.296787e-01	1.503841e+00	1.549577e+00	6.451098e-01	9.044673e-01
9.800000e-02	-1.281427e-01	1.504339e+00	1.560565e+00	6.521396e-01	9.084249e-01
1.000000e-01	-1.267527e-01	1.504378e+00	1.571093e+00	6.587936e-01	9.122990e-01
1.020000e-01	-1.250834e-01	1.505943e+00	1.582330e+00	6.660816e-01	9.162485e-01
1.040000e-01	-1.235237e-01	1.507191e+00	1.593145e+00	6.730488e-01	9.200963e-01
1.060000e-01	-1.222600e-01	1.507499e+00	1.603266e+00	6.793729e-01	9.238930e-01
1.080000e-01	-1.211017e-01	1.507585e+00	1.613051e+00	6.854238e-01	9.276272e-01
1.100000e-01	-1.199453e-01	1.507956e+00	1.622959e+00	6.915340e-01	9.314245e-01
1.120000e-01	-1.187446e-01	1.508688e+00	1.632962e+00	6.977366e-01	9.352257e-01
1.140000e-01	-1.177416e-01	1.508813e+00	1.642354e+00	7.034352e-01	9.389184e-01
1.160000e-01	-1.169579e-01	1.508180e+00	1.651239e+00	7.086616e-01	9.425773e-01
1.180000e-01	-1.160038e-01	1.508525e+00	1.660586e+00	7.142891e-01	9.462967e-01
1.200000e-01	-1.151177e-01	1.508731e+00	1.669654e+00	7.197095e-01	9.499449e-01
1.220000e-01	-1.145391e-01	1.507749e+00	1.677961e+00	7.244415e-01	9.535196e-01
1.240000e-01	-1.138188e-01	1.507610e+00	1.686592e+00	7.294773e-01	9.571149e-01
1.260000e-01	-1.131746e-01	1.507411e+00	1.695049e+00	7.343498e-01	9.606989e-01
1.280000e-01	-1.126534e-01	1.506728e+00	1.703163e+00	7.389279e-01	9.642346e-01
1.300000e-01	-1.121851e-01	1.505956e+00	1.711000e+00	7.433147e-01	9.676850e-01
1.320000e-01	-1.117837e-01	1.505094e+00	1.718822e+00	7.476273e-01	9.711948e-01
1.340000e-01	-1.112894e-01	1.504804e+00	1.726851e+00	7.521362e-01	9.747151e-01
1.360000e-01	-1.109813e-01	1.503793e+00	1.734298e+00	7.561679e-01	9.781304e-01
1.380000e-01	-1.107186e-01	1.502673e+00	1.741622e+00	7.600924e-01	9.815295e-01
1.400000e-01	-1.103393e-01	1.502281e+00	1.749291e+00	7.643061e-01	9.849848e-01
1.420000e-01	-1.100918e-01	1.501456e+00	1.756564e+00	7.681905e-01	9.883740e-01
1.440000e-01	-1.099870e-01	1.500091e+00	1.763356e+00	7.716910e-01	9.916650e-01
1.460000e-01	-1.099100e-01	1.498761e+00	1.770148e+00	7.751638e-01	9.949838e-01
1.480000e-01	-1.097025e-01	1.498079e+00	1.777346e+00	7.789708e-01	9.983757e-01
1.500000e-01	-1.096428e-01	1.496903e+00	1.784098e+00	7.824060e-01	1.001692e+00
1.520000e-01	-1.095901e-01	1.495726e+00	1.790767e+00	7.857932e-01	1.004973e+00
1.540000e-01	-1.096165e-01	1.494290e+00	1.797198e+00	7.889827e-01	1.008216e+00
1.560000e-01	-1.095065e-01	1.493640e+00	1.804067e+00	7.925271e-01	1.011540e+00
1.580000e-01	-1.095609e-01	1.492282e+00	1.810394e+00	7.956364e-01	1.014758e+00
1.600000e-01	-1.096452e-01	1.490861e+00	1.816581e+00	7.986452e-01	1.017936e+00
1.620000e-01	-1.096615e-01	1.489911e+00	1.823047e+00	8.018618e-01	1.021185e+00
1.640000e-01	-1.097531e-01	1.488630e+00	1.829189e+00	8.048412e-01	1.024347e+00
1.660000e-01	-1.098514e-01	1.487442e+00	1.835318e+00	8.078075e-01	1.027510e+00
1.680000e-01	-1.100158e-01	1.486002e+00	1.841219e+00	8.105935e-01	1.030625e+00
1.700000e-01	-1.101229e-01	1.484924e+00	1.847307e+00	8.135306e-01	1.033776e+00
1.720000e-01	-1.102486e-01	1.483834e+00	1.853285e+00	8.163937e-01	1.036891e+00
1.740000e-01	-1.104339e-01	1.482494e+00	1.859076e+00	8.191041e-01	1.039972e+00
1.760000e-01	-1.106488e-01	1.481133e+00	1.864813e+00	8.217575e-01	1.043055e+00
1.780000e-01	-1.107900e-01	1.480171e+00	1.870686e+00	8.245528e-01	1.046133e+00
1.800000e-01	-1.110164e-01	1.478903e+00	1.876355e+00	8.271610e-01	1.049194e+00
1.820000e-01	-1.112908e-01	1.477420e+00	1.881778e+00	8.295982e-01	1.052180e+00
1.840000e-01	-1.114907e-01	1.476387e+00	1.887459e+00	8.322389e-01	1.055220e+00
1.860000e-01	-1.117234e-01	1.475258e+00	1.893017e+00	8.347852e-01	1.058232e+00
1.880000e-01	-1.120048e-01	1.473917e+00	1.898363e+00	8.371769e-01	1.061187e+00
1.900000e-01	-1.123024e-01	1.472557e+00	1.903637e+00	8.395163e-01	1.064121e+00
1.920000e-01	-1.125392e-01	1.471563e+00	1.909113e+00	8.420173e-01	1.067096e+00
1.940000e-01	-1.128279e-01	1.470322e+00	1.914356e+00	8.443499e-01	1.070006e+00
1.960000e-01	-1.131616e-01	1.468978e+00	1.919525e+00	8.466008e-01	1.072924e+00
1.980000e-01	-1.134522e-01	1.467916e+00	1.924799e+00	8.489475e-01	1.075852e+00
2.000000e-01	-1.137555e-01	1.466823e+00	1.930036e+00	8.512624e-01	1.078773e+00
2.020000e-01	-1.140985e-01	1.465550e+00	1.935063e+00	8.534330e-01	1.081630e+00
2.040000e-01	-1.144458e-01	1.464301e+00	1.940069e+00	8.555884e-01	1.084480e+00
2.060000e-01	-1.147688e-01	1.463215e+00	1.945123e+00	8.577926e-01	1.087330e+00
2.080000e-01	-1.151173e-01	1.462071e+00	1.950132e+00	8.599486e-01	1.090183e+00
2.100000e-01	-1.154930e-01	1.460787e+00	1.954953e+00	8.619835e-01	1.092969e+00
2.120000e-01	-1.158482e-01	1.459679e+00	1.959885e+00	8.640945e-01	1.095791e+00
2.140000e-01	-1.161952e-01	1.458634e+00	1.964779e+00	8.661944e-01	1.098585e+00
2.160000e-01	-1.165791e-01	1.457437e+00	1.969519e+00	8.681805e-01	1.101339e+00
2.180000e-01	-1.169760e-01	1.456211e+00	1.974215e+00	8.701314e-01	1.104083e+00
2.200000e-01	-1.173464e-01	1.455151e+00	1.978987e+00	8.721472e-01	1.106840e+00
2.220000e-01	-1.177344e-01	1.454057e+00	1.983675e+00	8.741032e-01	1.109572e+00
2.240000e-01	-1.181625e-01	1.452768e+00	1.988183e+00	8.759288e-01	1.112254e+00
2.260000e-01	-1.185700e-01	1.451639e+00	1.992814e+00	8.778370e-01	1.114977e+00
2.280000e-01	-1.189554e-01	1.450638e+00	1.997445e+00	8.797671e-01	1.117678e+00
2.300000e-01	-1.193814e-01	1.449441e+00	2.001892e+00	8.815644e-01	1.120327e+00
2.320000e-01	-1.198237e-01	1.448237e+00	2.006320e+00	8.833364e-01	1.122984e+00
2.340000e-01	-1.202366e-01	1.447206e+00	2.010854e+00	8.851905e-01	1.125664e+00
2.360000e-01	-1.206562e-01	1.446148e+00	2.015305e+00	8.869962e-01	1.128309e+00
2.380000e-01	-1.211070e-01	1.444941e+00	2.019601e+00	8.886936e-01	1.130908e+00
2.400000e-01	-1.215356e-01	1.443879e+00	2.023963e+00	8.904459e-01	1.133517e+00
2.420000e-01	-1.219598e-01	1.442872e+00	2.028347e+00	8.922136e-01	1.136133e+00
2.440000e-01	-1.224142e-01	1.441698e+00	2.032543e+00	8.938573e-01	1.138686e+00
2.460000e-01	-1.228737e-01	1.440571e+00	2.036776e+00	8.955141e-01	1.141261e+00
2.480000e-01	-1.233045e-01	1.439603e+00	2.041062e+00	8.972267e-01	1.143836e+00
2.500000e-01	-1.237555e-01	1.438522e+00	2.045251e+00	8.988700e-01	1.146381e+00
2.520000e-01	-1.242190e-01	1.437396e+00	2.049350e+00	9.004561e-01	1.148894e+00
2.540000e-01	-1.246712e-01	1.436372e+00	2.053506e+00	9.020820e-01	1.151424e+00
2.560000e-01	-1.251115e-01	1.435411e+00	2.057657e+00	9.037169e-01	1.153940e+00
2.580000e-01	-1.255861e-01	1.434259e+00	2.061636e+00	9.052321e-01	1.156404e+00
2.600000e-01	-1.260546e-01	1.433186e+00	2.065649e+00	9.067700e-01	1.158879e+00
2.620000e-01	-1.265146e-01	1.432223e+00	2.069729e+00	9.083500e-01	1.161379e+00
2.640000e-01	-1.269851e-01	1.431175e+00	2.073702e+00	9.098660e-01	1.163836e+00
2.660000e-01	-1.274718e-01	1.430051e+00	2.077582e+00	9.113190e-01	1.166263e+00
2.680000e-01	-1.279340e-01	1.429075e+00	2.081548e+00	9.128401e-01	1.168708e+00
2.700000e-01	-1.283942e-01	1.428112e+00	2.085473e+00	9.143423e-01	1.171131e+00
2.720000e-01	-1.288891e-01	1.426983e+00	2.089267e+00	9.157446e-01	1.173523e+00
2.740000e-01	-1.293691e-01	1.425974e+00	2.093125e+00	9.171936e-01	1.175932e+00
2.760000e-01	-1.298343e-01	1.425042e+00	2.096983e+00	9.186574e-01	1.178326e+00
2.780000e-01	-1.303246e-01	1.423986e+00	2.100741e+00	9.200460e-01	1.180695e+00
2.800000e-01	-1.308135e-01	1.422942e+00	2.104479e+00	9.214260e-01	1.183053e+00
2.820000e-01	-1.312909e-01	1.421976e+00	2.108243e+00	9.228304e-01	1.185412e+00
2.840000e-01	-1.317722e-01	1.420990e+00	2.111946e+00	9.242005e-01	1.187745e+00
2.860000e-01	-1.322691e-01	1.419939e+00	2.115604e+00	9.255328e-01	1.190071e+00
2.880000e-01	-1.327525e-01	1.418972e+00	2.119291e+00	9.268930e-01	1.192398e+00
2.900000e-01	-1.332346e-01	1.418029e+00	2.122953e+00	9.282418e-01	1.194711e+00
2.920000e-01	-1.337391e-01	1.416964e+00	2.126520e+00	9.295207e-01	1.196999e+00
2.940000e-01	-1.342279e-01	1.415991e+00	2.130109e+00	9.308265e-01	1.199282e+00
2.960000e-01	-1.347082e-01	1.415064e+00	2.133703e+00	9.321431e-01	1.201559e+00
2.980000e-01	-1.352030e-01	1.414074e+00	2.137230e+00	9.334117e-01	1.203818e+00
3.000000e-01	-1.357013e-01	1.413088e+00	2.140747e+00	9.346721e-01	1.206075e+00
3.020000e-01	-1.361920e-01	1.412134e+00	2.144256e+00	9.359361e-01	1.208320e+00
3.040000e-01	-1.366786e-01	1.411204e+00	2.147752e+00	9.371972e-01	1.210554e+00
3.060000e-01	-1.371840e-01	1.410186e+00	2.151165e+00	9.383987e-01	1.212767e+00
3.080000e-01	-1.376771e-01	1.409236e+00	2.154598e+00	9.396221e-01	1.214976e+00
3.100000e-01	-1.381682e-01	1.408328e+00	2.158052e+00	9.408577e-01	1.217194e+00
3.120000e-01	-1.386805e-01	1.407316e+00	2.161413e+00	9.420261e-01	1.219387e+00
3.140000e-01	-1.391784e-01	1.406366e+00	2.164778e+00	9.432106e-01	1.221567e+00
3.160000e-01	-1.396663e-01	1.405475e+00	2.168165e+00	9.444162e-01	1.223749e+00
3.180000e-01	-1.401653e-01	1.404517e+00	2.171478e+00	9.455736e-01	1.225904e+00
3.200000e-01	-1.406668e-01	1.403554e+00	2.174764e+00	9.467154e-01	1.228049e+00
3.220000e-01	-1.411592e-01	1.402660e+00	2.178085e+00	9.478835e-01	1.230202e+00
3.240000e-01	-1.416530e-01	1.401754e+00	2.181367e+00	9.490304e-01	1.232336e+00
3.260000e-01	-1.421584e-01	1.400782e+00	2.184577e+00	9.501301e-01	1.234447e+00
3.280000e-01	-1.426538e-01	1.399890e+00	2.187844e+00	9.512682e-01	1.236576e+00
3.300000e-01	-1.431454e-01	1.399009e+00	2.191085e+00	9.523970e-01	1.238688e+00
3.320000e-01	-1.436524e-01	1.398057e+00	2.194258e+00	9.534768e-01	1.240781e+00
3.340000e-01	-1.441509e-01	1.397145e+00	2.197439e+00	9.545684e-01	1.242870e+00
3.360000e-01	-1.446394e-01	1.396296e+00	2.200635e+00	9.556779e-01	1.244957e+00
3.380000e-01	-1.451390e-01	1.395356e+00	2.203732e+00	9.567270e-01	1.247005e+00
3.400000e-01	-1.456387e-01	1.394423e+00	2.206833e+00	9.577777e-01	1.249055e+00
3.420000e-01	-1.461306e-01	1.393562e+00	2.209967e+00	9.588527e-01	1.251114e+00
3.440000e-01	-1.466237e-01	1.392680e+00	2.213048e+00	9.599001e-01	1.253147e+00
3.460000e-01	-1.471304e-01	1.391761e+00	2.216113e+00	9.609262e-01	1.255187e+00
3.480000e-01	-1.476224e-01	1.390906e+00	2.219189e+00	9.619723e-01	1.257217e+00
3.500000e-01	-1.481149e-01	1.390055e+00	2.222237e+00	9.630037e-01	1.259233e+00
3.520000e-01	-1.486161e-01	1.389148e+00	2.225244e+00	9.640058e-01	1.261238e+00
3.540000e-01	-1.491114e-01	1.388280e+00	2.228259e+00	9.650181e-01	1.263241e+00
3.560000e-01	-1.495986e-01	1.387456e+00	2.231279e+00	9.660408e-01	1.265238e+00
3.580000e-01	-1.501016e-01	1.386537e+00	2.234213e+00	9.670049e-01	1.267208e+00
3.600000e-01	-1.505927e-01	1.385686e+00	2.237174e+00	9.679941e-01	1.269180e+00
3.620000e-01	-1.510811e-01	1.384863e+00	2.240141e+00	9.689893e-01	1.271152e+00
3.640000e-01	-1.515791e-01	1.383978e+00	2.243037e+00	9.699396e-01	1.273098e+00
3.660000e-01	-1.520711e-01	1.383127e+00	2.245947e+00	9.709023e-01	1.275044e+00
3.680000e-01	-1.525532e-01	1.382332e+00	2.248883e+00	9.718886e-01	1.276995e+00
3.700000e-01	-1.530467e-01	1.381469e+00	2.251746e+00	9.728263e-01	1.278920e+00
3.720000e-01	-1.535395e-01	1.380607e+00	2.254593e+00	9.737569e-01	1.280836e+00
3.740000e-01	-1.540231e-01	1.379804e+00	2.257465e+00	9.747092e-01	1.282755e+00
3.760000e-01	-1.545111e-01	1.378965e+00	2.260283e+00	9.756306e-01	1.284653e+00
3.780000e-01	-1.549995e-01	1.378127e+00	2.263097e+00	9.765489e-01	1.286548e+00
3.800000e-01	-1.554825e-01	1.377315e+00	2.265902e+00	9.774687e-01	1.288434e+00
3.820000e-01	-1.559599e-01	1.376523e+00	2.268702e+00	9.783910e-01	1.290311e+00
3.840000e-01	-1.564572e-01	1.375653e+00	2.271460e+00	9.792728e-01	1.292187e+00
3.860000e-01	-1.569401e-01	1.374860e+00	2.274235e+00	9.801776e-01	1.294058e+00
3.880000e-01	-1.574150e-01	1.374098e+00	2.277004e+00	9.810871e-01	1.295917e+00
3.900000e-01	-1.578983e-01	1.373246e+00	2.279689e+00	9.819461e-01	1.297743e+00
3.920000e-01	-1.583809e-01	1.372449e+00	2.282422e+00	9.828302e-01	1.299592e+00
3.940000e-01	-1.588542e-01	1.371687e+00	2.285145e+00	9.837184e-01	1.301427e+00
3.960000e-01	-1.593381e-01	1.370853e+00	2.287803e+00	9.845636e-01	1.303240e+00
3.980000e-01	-1.598139e-01	1.370071e+00	2.290477e+00	9.854247e-01	1.305052e+00
4.000000e-01	-1.602845e-01	1.369324e+00	2.293175e+00	9.863030e-01	1.306872e+00
4.020000e-01	-1.607649e-01	1.368501e+00	2.295789e+00	9.871296e-01	1.308659e+00
4.040000e-01	-1.612377e-01	1.367717e+00	2.298418e+00	9.879713e-01	1.310447e+00
4.060000e-01	-1.617019e-01	1.366969e+00	2.301045e+00	9.888206e-01	1.312224e+00
4.080000e-01	-1.621762e-01	1.366174e+00	2.303629e+00	9.896385e-01	1.313991e+00
4.100000e-01	-1.626487e-01	1.365394e+00	2.306219e+00	9.904609e-01	1.315758e+00
4.120000e-01	-1.631133e-01	1.364655e+00	2.308810e+00	9.912916e-01	1.317518e+00
4.140000e-01	-1.635831e-01	1.363884e+00	2.311371e+00	9.921022e-01	1.319268e+00
4.160000e-01	-1.640510e-01	1.363121e+00	2.313919e+00	9.929085e-01	1.321010e+00
4.180000e-01	-1.645141e-01	1.362382e+00	2.316469e+00	9.937202e-01	1.322748e+00
4.200000e-01	-1.649750e-01	1.361642e+00	2.318999e+00	9.945246e-01	1.324475e+00
4.220000e-01	-1.654403e-01	1.360881e+00	2.321508e+00	9.953139e-01	1.326194e+00
4.240000e-01	-1.658994e-01	1.360153e+00	2.324021e+00	9.961109e-01	1.327910e+00
4.260000e-01	-1.663573e-01	1.359429e+00	2.326517e+00	9.969011e-01	1.329616e+00
4.280000e-01	-1.668202e-01	1.358661e+00	2.328968e+00	9.976640e-01	1.331304e+00
4.300000e-01	-1.672731e-01	1.357955e+00	2.331446e+00	9.984501e-01	1.332996e+00
4.320000e-01	-1.677277e-01	1.357237e+00	2.333910e+00	9.992275e-01	1.334683e+00
4.340000e-01	-1.681860e-01	1.356484e+00	2.336321e+00	9.999744e-01	1.336346e+00
4.360000e-01	-1.686365e-01	1.355775e+00	2.338756e+00	1.000742e+00	1.338015e+00
4.380000e-01	-1.690845e-01	1.355079e+00	2.341186e+00	1.001508e+00	1.339677e+00
4.400000e-01	-1.695416e-01	1.354338e+00	2.343569e+00	1.002243e+00	1.341326e+00
4.420000e-01	-1.699873e-01	1.353649e+00	2.345975e+00	1.003000e+00	1.342975e+00
4.440000e-01	-1.704298e-01	1.352971e+00	2.348365e+00	1.003753e+00	1.344612e+00
4.460000e-01	-1.708787e-01	1.352237e+00	2.350705e+00	1.004474e+00	1.346231e+00
4.480000e-01	-1.713248e-01	1.351561e+00	2.353092e+00	1.005221e+00	1.347871e+00
4.500000e-01	-1.717629e-01	1.350883e+00	2.355439e+00	1.005957e+00	1.349482e+00
4.520000e-01	-1.722015e-01	1.350168e+00	2.357738e+00	1.006667e+00	1.351071e+00
4.540000e-01	-1.726438e-01	1.349502e+00	2.360084e+00	1.007398e+00	1.352686e+00
4.560000e-01	-1.730848e-01	1.348838e+00	2.362424e+00	1.008127e+00	1.354297e+00
4.580000e-01	-1.735247e-01	1.348139e+00	2.364704e+00	1.008827e+00	1.355877e+00
4.600000e-01	-1.739592e-01	1.347471e+00	2.367002e+00	1.009542e+00	1.357460e+00
4.620000e-01	-1.743893e-01	1.346823e+00	2.369290e+00	1.010256e+00	1.359034e+00
4.640000e-01	-1.748242e-01	1.346136e+00	2.371534e+00	1.010943e+00	1.360591e+00
4.660000e-01	-1.752533e-01	1.345484e+00	2.373798e+00	1.011646e+00	1.362153e+00
4.680000e-01	-1.756799e-01	1.344842e+00	2.376053e+00	1.012346e+00	1.363706e+00
4.700000e-01	-1.761104e-01	1.344169e+00	2.378269e+00	1.013024e+00	1.365245e+00
4.720000e-01	-1.765349e-01	1.343531e+00	2.380500e+00	1.013715e+00	1.366785e+00
4.740000e-01	-1.769587e-01	1.342893e+00	2.382723e+00	1.014403e+00	1.368320e+00
4.760000e-01	-1.773840e-01	1.342239e+00	2.384913e+00	1.015072e+00	1.369840e+00
4.780000e-01	-1.778023e-01	1.341615e+00	2.387114e+00	1.015755e+00	1.371359e+00
4.800000e-01	-1.782162e-01	1.340993e+00	2.389293e+00	1.016430e+00	1.372863e+00
4.820000e-01	-1.786357e-01	1.340341e+00	2.391444e+00	1.017086e+00	1.374358e+00
4.840000e-01	-1.790536e-01	1.339728e+00	2.393621e+00	1.017757e+00	1.375864e+00
4.860000e-01	-1.794640e-01	1.339132e+00	2.395781e+00	1.018426e+00	1.377354e+00
4.880000e-01	-1.798813e-01	1.338489e+00	2.397907e+00	1.019072e+00	1.378835e+00
4.900000e-01	-1.802920e-01	1.337881e+00	2.400040e+00	1.019728e+00	1.380312e+00
4.920000e-01	-1.806997e-01	1.337286e+00	2.402172e+00	1.020387e+00	1.381786e+00
4.940000e-01	-1.811095e-01	1.336664e+00	2.404265e+00	1.021023e+00	1.383242e+00
4.960000e-01	-1.815150e-01	1.336066e+00	2.406365e+00	1.021667e+00	1.384697e+00
4.980000e-01	-1.819174e-01	1.335482e+00	2.408464e+00	1.022315e+00	1.386149e+00
5.000000e-01	-1.823225e-01	1.334873e+00	2.410529e+00	1.022942e+00	1.387587e+00
5.020000e-01	-1.827237e-01	1.334283e+00	2.412596e+00	1.023574e+00	1.389022e+00
5.040000e-01	-1.831201e-01	1.333717e+00	2.414670e+00	1.024215e+00	1.390455e+00
5.060000e-01	-1.835194e-01	1.333116e+00	2.416699e+00	1.024830e+00	1.391869e+00
5.080000e-01	-1.839145e-01	1.332541e+00	2.418740e+00	1.025456e+00	1.393285e+00
5.100000e-01	-1.843061e-01	1.331993e+00	2.420784e+00	1.026086e+00	1.394698e+00
5.120000e-01	-1.847016e-01	1.331399e+00	2.422784e+00	1.026690e+00	1.396094e+00
5.140000e-01	-1.850902e-01	1.330841e+00	2.424796e+00	1.027308e+00	1.397488e+00
5.160000e-01	-1.854779e-01	1.330298e+00	2.426812e+00	1.027928e+00	1.398884e+00
5.180000e-01	-1.858703e-01	1.329717e+00	2.428789e+00	1.028524e+00	1.400265e+00
5.200000e-01	-1.862541e-01	1.329179e+00	2.430779e+00	1.029135e+00	1.401644e+00
5.220000e-01	-1.866369e-01	1.328640e+00	2.432759e+00	1.029742e+00	1.403016e+00
5.240000e-01	-1.870205e-01	1.328075e+00	2.434700e+00	1.030329e+00	1.404370e+00
5.260000e-01	-1.874061e-01	1.327549e+00	2.436682e+00	1.030935e+00	1.405747e+00
5.280000e-01	-1.877825e-01	1.327025e+00	2.438635e+00	1.031535e+00	1.407100e+00
5.300000e-01	-1.881618e-01	1.326463e+00	2.440544e+00	1.032110e+00	1.408434e+00
5.320000e-01	-1.885352e-01	1.325938e+00	2.442467e+00	1.032698e+00	1.409769e+00
5.340000e-01	-1.889066e-01	1.325427e+00	2.444395e+00	1.033291e+00	1.411104e+00
5.360000e-01	-1.892819e-01	1.324879e+00	2.446280e+00	1.033858e+00	1.412422e+00
5.380000e-01	-1.896510e-01	1.324370e+00	2.448184e+00	1.034441e+00	1.413743e+00
5.400000e-01	-1.900180e-01	1.323868e+00	2.450079e+00	1.035021e+00	1.415058e+00
5.420000e-01	-1.903875e-01	1.323338e+00	2.451942e+00	1.035584e+00	1.416359e+00
5.440000e-01	-1.907522e-01	1.322836e+00	2.453814e+00	1.036155e+00	1.417659e+00
5.460000e-01	-1.911145e-01	1.322343e+00	2.455685e+00	1.036728e+00	1.418957e+00
5.480000e-01	-1.914780e-01	1.321828e+00	2.457519e+00	1.037282e+00	1.420238e+00
5.500000e-01	-1.918342e-01	1.321341e+00	2.459361e+00	1.037846e+00	1.421515e+00
5.520000e-01	-1.921896e-01	1.320858e+00	2.461196e+00	1.038408e+00	1.422787e+00
5.540000e-01	-1.925488e-01	1.320348e+00	2.463001e+00	1.038952e+00	1.424050e+00
5.560000e-01	-1.929018e-01	1.319876e+00	2.464823e+00	1.039509e+00	1.425313e+00
5.580000e-01	-1.932539e-01	1.319399e+00	2.466630e+00	1.040061e+00	1.426569e+00
5.600000e-01	-1.936071e-01	1.318906e+00	2.468416e+00	1.040601e+00	1.427815e+00
5.620000e-01	-1.939548e-01	1.318443e+00	2.470208e+00	1.041149e+00	1.429059e+00
5.640000e-01	-1.943020e-01	1.317974e+00	2.471984e+00	1.041690e+00	1.430294e+00
5.660000e-01	-1.946480e-01	1.317502e+00	2.473745e+00	1.042224e+00	1.431520e+00
5.680000e-01	-1.949901e-01	1.317047e+00	2.475509e+00	1.042764e+00	1.432745e+00
5.700000e-01	-1.953340e-01	1.316579e+00	2.477255e+00	1.043293e+00	1.433961e+00
5.720000e-01	-1.956724e-01	1.316128e+00	2.478996e+00	1.043826e+00	1.435171e+00
5.740000e-01	-1.960113e-01	1.315675e+00	2.480727e+00	1.044352e+00	1.436375e+00
5.760000e-01	-1.963504e-01	1.315222e+00	2.482450e+00	1.044874e+00	1.437575e+00
5.780000e-01	-1.966865e-01	1.314785e+00	2.484178e+00	1.045402e+00	1.438775e+00
5.800000e-01	-1.970198e-01	1.314353e+00	2.485895e+00	1.045928e+00	1.439967e+00
5.820000e-01	-1.973499e-01	1.313906e+00	2.487576e+00	1.046438e+00	1.441138e+00
5.840000e-01	-1.976793e-01	1.313473e+00	2.489264e+00	1.046953e+00	1.442311e+00
5.860000e-01	-1.980050e-01	1.313053e+00	2.490949e+00	1.047470e+00	1.443480e+00
5.880000e-01	-1.983340e-01	1.312613e+00	2.492611e+00	1.047971e+00	1.444639e+00
5.900000e-01	-1.986572e-01	1.312200e+00	2.494283e+00	1.048484e+00	1.445799e+00
5.920000e-01	-1.989784e-01	1.311792e+00	2.495944e+00	1.048994e+00	1.446950e+00
5.940000e-01	-1.993003e-01	1.311366e+00	2.497579e+00	1.049489e+00	1.448090e+00
5.960000e-01	-1.996187e-01	1.310956e+00	2.499218e+00	1.049990e+00	1.449228e+00
5.980000e-01	-1.999343e-01	1.310557e+00	2.500853e+00	1.050492e+00	1.450361e+00
6.000000e-01	-2.002509e-01	1.310133e+00	2.502455e+00	1.050977e+00	1.451479e+00
6.020000e-01	-2.005659e-01	1.309741e+00	2.504078e+00	1.051473e+00	1.452605e+00
6.040000e-01	-2.008769e-01	1.309362e+00	2.505695e+00	1.051970e+00	1.453724e+00
6.060000e-01	-2.011904e-01	1.308953e+00	2.507280e+00	1.052449e+00	1.454830e+00
6.080000e-01	-2.014965e-01	1.308572e+00	2.508871e+00	1.052939e+00	1.455932e+00
6.100000e-01	-2.018048e-01	1.308184e+00	2.510456e+00	1.053423e+00	1.457033e+00
6.120000e-01	-2.021109e-01	1.307792e+00	2.512018e+00	1.053898e+00	1.458120e+00
6.140000e-01	-2.024133e-01	1.307415e+00	2.513580e+00	1.054377e+00	1.459203e+00
6.160000e-01	-2.027136e-01	1.307040e+00	2.515130e+00	1.054851e+00	1.460279e+00
6.180000e-01	-2.030141e-01	1.306670e+00	2.516683e+00	1.055327e+00	1.461355e+00
6.200000e-01	-2.033125e-01	1.306308e+00	2.518227e+00	1.055801e+00	1.462426e+00
6.220000e-01	-2.036069e-01	1.305935e+00	2.519741e+00	1.056264e+00	1.463477e+00
6.240000e-01	-2.039009e-01	1.305575e+00	2.521266e+00	1.056732e+00	1.464534e+00
6.260000e-01	-2.041930e-01	1.305222e+00	2.522782e+00	1.057198e+00	1.465584e+00
6.280000e-01	-2.044847e-01	1.304859e+00	2.524281e+00	1.057656e+00	1.466625e+00
6.300000e-01	-2.047733e-01	1.304509e+00	2.525777e+00	1.058115e+00	1.467662e+00
6.320000e-01	-2.050591e-01	1.304172e+00	2.527274e+00	1.058578e+00	1.468696e+00
6.340000e-01	-2.053448e-01	1.303816e+00	2.528742e+00	1.059026e+00	1.469716e+00
6.360000e-01	-2.056298e-01	1.303483e+00	2.530224e+00	1.059482e+00	1.470742e+00
6.380000e-01	-2.059112e-01	1.303149e+00	2.531693e+00	1.059935e+00	1.471758e+00
6.400000e-01	-2.061923e-01	1.302804e+00	2.533138e+00	1.060377e+00	1.472761e+00
6.420000e-01	-2.064699e-01	1.302475e+00	2.534586e+00	1.060823e+00	1.473763e+00
6.440000e-01	-2.067463e-01	1.302162e+00	2.536040e+00	1.061274e+00	1.474766e+00
6.460000e-01	-2.070219e-01	1.301829e+00	2.537461e+00	1.061708e+00	1.475752e+00
6.480000e-01	-2.072941e-01	1.301513e+00	2.538887e+00	1.062149e+00	1.476738e+00
6.500000e-01	-2.075668e-01	1.301192e+00	2.540305e+00	1.062586e+00	1.477719e+00
6.520000e-01	-2.078373e-01	1.300874e+00	2.541708e+00	1.063017e+00	1.478691e+00
6.540000e-01	-2.081043e-01	1.300568e+00	2.543115e+00	1.063453e+00	1.479662e+00
6.560000e-01	-2.083710e-01	1.300256e+00	2.544503e+00	1.063880e+00	1.480622e+00
6.580000e-01	-2.086345e-01	1.299953e+00	2.545885e+00	1.064308e+00	1.481577e+00
6.600000e-01	-2.088969e-01	1.299657e+00	2.547266e+00	1.064736e+00	1.482530e+00
6.620000e-01	-2.091591e-01	1.299356e+00	2.548633e+00	1.065157e+00	1.483475e+00
6.640000e-01	-2.094185e-01	1.299060e+00	2.549993e+00	1.065578e+00	1.484415e+00
6.660000e-01	-2.096748e-01	1.298778e+00	2.551352e+00	1.066001e+00	1.485351e+00
6.680000e-01	-2.099310e-01	1.298485e+00	2.552691e+00	1.066415e+00	1.486277e+00
6.700000e-01	-2.101859e-01	1.298199e+00	2.554032e+00	1.066830e+00	1.487202e+00
6.720000e-01	-2.104354e-01	1.297922e+00	2.555360e+00	1.067245e+00	1.488115e+00
6.740000e-01	-2.106854e-01	1.297635e+00	2.556667e+00	1.067648e+00	1.489019e+00
6.760000e-01	-2.109333e-01	1.297364e+00	2.557983e+00	1.068058e+00	1.489925e+00
6.780000e-01	-2.111799e-01	1.297096e+00	2.559292e+00	1.068466e+00	1.490826e+00
6.800000e-01	-2.114261e-01	1.296820e+00	2.560585e+00	1.068866e+00	1.491719e+00
6.820000e-01	-2.116691e-01	1.296558e+00	2.561878e+00	1.069270e+00	1.492608e+00
6.840000e-01	-2.119113e-01	1.296291e+00	2.563157e+00	1.069667e+00	1.493490e+00
6.860000e-01	-2.121508e-01	1.296035e+00	2.564432e+00	1.070065e+00	1.494367e+00
6.880000e-01	-2.123885e-01	1.295785e+00	2.565705e+00	1.070464e+00	1.495241e+00
6.900000e-01	-2.126250e-01	1.295528e+00	2.566957e+00	1.070853e+00	1.496103e+00
6.920000e-01	-2.128585e-01	1.295283e+00	2.568210e+00	1.071246e+00	1.496963e+00
6.940000e-01	-2.130919e-01	1.295040e+00	2.569459e+00	1.071638e+00	1.497821e+00
6.960000e-01	-2.133251e-01	1.294787e+00	2.570690e+00	1.072020e+00	1.498670e+00
6.980000e-01	-2.135536e-01	1.294547e+00	2.571918e+00	1.072405e+00	1.499513e+00
7.000000e-01	-2.137804e-01	1.294315e+00	2.573142e+00	1.072791e+00	1.500352e+00
7.020000e-01	-2.140075e-01	1.294069e+00	2.574345e+00	1.073165e+00	1.501180e+00
7.040000e-01	-2.142304e-01	1.293846e+00	2.575554e+00	1.073547e+00	1.502007e+00
7.060000e-01	-2.144534e-01	1.293618e+00	2.576753e+00	1.073923e+00	1.502830e+00
7.080000e-01	-2.146743e-01	1.293390e+00	2.577941e+00	1.074296e+00	1.503645e+00
7.100000e-01	-2.148929e-01	1.293169e+00	2.579125e+00	1.074670e+00	1.504456e+00
7.120000e-01	-2.151110e-01	1.292947e+00	2.580297e+00	1.075037e+00	1.505259e+00
7.140000e-01	-2.153278e-01	1.292737e+00	2.581475e+00	1.075410e+00	1.506065e+00
7.160000e-01	-2.155412e-01	1.292522e+00	2.582633e+00	1.075776e+00	1.506858e+00
7.180000e-01	-2.157524e-01	1.292304e+00	2.583776e+00	1.076135e+00	1.507640e+00
7.200000e-01	-2.159632e-01	1.292098e+00	2.584922e+00	1.076498e+00	1.508424e+00
7.220000e-01	-2.161692e-01	1.291903e+00	2.586061e+00	1.076861e+00	1.509200e+00
7.240000e-01	-2.163769e-01	1.291692e+00	2.587181e+00	1.077214e+00	1.509967e+00
7.260000e-01	-2.165823e-01	1.291497e+00	2.588307e+00	1.077571e+00	1.510736e+00
7.280000e-01	-2.167853e-01	1.291306e+00	2.589425e+00	1.077927e+00	1.511498e+00
7.300000e-01	-2.169874e-01	1.291108e+00	2.590527e+00	1.078276e+00	1.512251e+00
7.320000e-01	-2.171868e-01	1.290915e+00	2.591623e+00	1.078625e+00	1.512998e+00
7.340000e-01	-2.173864e-01	1.290733e+00	2.592722e+00	1.078975e+00	1.513748e+00
7.360000e-01	-2.175840e-01	1.290553e+00	2.593813e+00	1.079322e+00	1.514490e+00
7.380000e-01	-2.177786e-01	1.290376e+00	2.594892e+00	1.079667e+00	1.515225e+00
7.400000e-01	-2.179728e-01	1.290192e+00	2.595958e+00	1.080006e+00	1.515952e+00
7.420000e-01	-2.181641e-01	1.290015e+00	2.597019e+00	1.080345e+00	1.516674e+00
7.440000e-01	-2.183535e-01	1.289848e+00	2.598080e+00	1.080686e+00	1.517393e+00
7.460000e-01	-2.185430e-01	1.289667e+00	2.599119e+00	1.081017e+00	1.518103e+00
7.480000e-01	-2.187301e-01	1.289500e+00	2.600161e+00	1.081351e+00	1.518811e+00